# vtk DataFile Version 3.0
test
ASCII 
DATASET STRUCTURED_GRID
DIMENSIONS  252 152   1
POINTS     38304 float
   0.0000    0.0000    0.0000
   0.0996    0.0000    0.0000
   0.1992    0.0000    0.0000
   0.2988    0.0000    0.0000
   0.3984    0.0000    0.0000
   0.4980    0.0000    0.0000
   0.5976    0.0000    0.0000
   0.6972    0.0000    0.0000
   0.7968    0.0000    0.0000
   0.8964    0.0000    0.0000
   0.9960    0.0000    0.0000
   1.0956    0.0000    0.0000
   1.1952    0.0000    0.0000
   1.2948    0.0000    0.0000
   1.3944    0.0000    0.0000
   1.4940    0.0000    0.0000
   1.5936    0.0000    0.0000
   1.6932    0.0000    0.0000
   1.7928    0.0000    0.0000
   1.8924    0.0000    0.0000
   1.9920    0.0000    0.0000
   2.0916    0.0000    0.0000
   2.1912    0.0000    0.0000
   2.2908    0.0000    0.0000
   2.3904    0.0000    0.0000
   2.4900    0.0000    0.0000
   2.5896    0.0000    0.0000
   2.6892    0.0000    0.0000
   2.7888    0.0000    0.0000
   2.8884    0.0000    0.0000
   2.9880    0.0000    0.0000
   3.0876    0.0000    0.0000
   3.1873    0.0000    0.0000
   3.2869    0.0000    0.0000
   3.3865    0.0000    0.0000
   3.4861    0.0000    0.0000
   3.5857    0.0000    0.0000
   3.6853    0.0000    0.0000
   3.7849    0.0000    0.0000
   3.8845    0.0000    0.0000
   3.9841    0.0000    0.0000
   4.0837    0.0000    0.0000
   4.1833    0.0000    0.0000
   4.2829    0.0000    0.0000
   4.3825    0.0000    0.0000
   4.4821    0.0000    0.0000
   4.5817    0.0000    0.0000
   4.6813    0.0000    0.0000
   4.7809    0.0000    0.0000
   4.8805    0.0000    0.0000
   4.9801    0.0000    0.0000
   5.0797    0.0000    0.0000
   5.1793    0.0000    0.0000
   5.2789    0.0000    0.0000
   5.3785    0.0000    0.0000
   5.4781    0.0000    0.0000
   5.5777    0.0000    0.0000
   5.6773    0.0000    0.0000
   5.7769    0.0000    0.0000
   5.8765    0.0000    0.0000
   5.9761    0.0000    0.0000
   6.0757    0.0000    0.0000
   6.1753    0.0000    0.0000
   6.2749    0.0000    0.0000
   6.3745    0.0000    0.0000
   6.4741    0.0000    0.0000
   6.5737    0.0000    0.0000
   6.6733    0.0000    0.0000
   6.7729    0.0000    0.0000
   6.8725    0.0000    0.0000
   6.9721    0.0000    0.0000
   7.0717    0.0000    0.0000
   7.1713    0.0000    0.0000
   7.2709    0.0000    0.0000
   7.3705    0.0000    0.0000
   7.4701    0.0000    0.0000
   7.5697    0.0000    0.0000
   7.6693    0.0000    0.0000
   7.7689    0.0000    0.0000
   7.8685    0.0000    0.0000
   7.9681    0.0000    0.0000
   8.0677    0.0000    0.0000
   8.1673    0.0000    0.0000
   8.2669    0.0000    0.0000
   8.3665    0.0000    0.0000
   8.4661    0.0000    0.0000
   8.5657    0.0000    0.0000
   8.6653    0.0000    0.0000
   8.7649    0.0000    0.0000
   8.8645    0.0000    0.0000
   8.9641    0.0000    0.0000
   9.0637    0.0000    0.0000
   9.1633    0.0000    0.0000
   9.2629    0.0000    0.0000
   9.3625    0.0000    0.0000
   9.4622    0.0000    0.0000
   9.5618    0.0000    0.0000
   9.6614    0.0000    0.0000
   9.7610    0.0000    0.0000
   9.8606    0.0000    0.0000
   9.9602    0.0000    0.0000
  10.0598    0.0000    0.0000
  10.1594    0.0000    0.0000
  10.2590    0.0000    0.0000
  10.3586    0.0000    0.0000
  10.4582    0.0000    0.0000
  10.5578    0.0000    0.0000
  10.6574    0.0000    0.0000
  10.7570    0.0000    0.0000
  10.8566    0.0000    0.0000
  10.9562    0.0000    0.0000
  11.0558    0.0000    0.0000
  11.1554    0.0000    0.0000
  11.2550    0.0000    0.0000
  11.3546    0.0000    0.0000
  11.4542    0.0000    0.0000
  11.5538    0.0000    0.0000
  11.6534    0.0000    0.0000
  11.7530    0.0000    0.0000
  11.8526    0.0000    0.0000
  11.9522    0.0000    0.0000
  12.0518    0.0000    0.0000
  12.1514    0.0000    0.0000
  12.2510    0.0000    0.0000
  12.3506    0.0000    0.0000
  12.4502    0.0000    0.0000
  12.5498    0.0000    0.0000
  12.6494    0.0000    0.0000
  12.7490    0.0000    0.0000
  12.8486    0.0000    0.0000
  12.9482    0.0000    0.0000
  13.0478    0.0000    0.0000
  13.1474    0.0000    0.0000
  13.2470    0.0000    0.0000
  13.3466    0.0000    0.0000
  13.4462    0.0000    0.0000
  13.5458    0.0000    0.0000
  13.6454    0.0000    0.0000
  13.7450    0.0000    0.0000
  13.8446    0.0000    0.0000
  13.9442    0.0000    0.0000
  14.0438    0.0000    0.0000
  14.1434    0.0000    0.0000
  14.2430    0.0000    0.0000
  14.3426    0.0000    0.0000
  14.4422    0.0000    0.0000
  14.5418    0.0000    0.0000
  14.6414    0.0000    0.0000
  14.7410    0.0000    0.0000
  14.8406    0.0000    0.0000
  14.9402    0.0000    0.0000
  15.0398    0.0000    0.0000
  15.1394    0.0000    0.0000
  15.2390    0.0000    0.0000
  15.3386    0.0000    0.0000
  15.4382    0.0000    0.0000
  15.5378    0.0000    0.0000
  15.6375    0.0000    0.0000
  15.7371    0.0000    0.0000
  15.8367    0.0000    0.0000
  15.9363    0.0000    0.0000
  16.0359    0.0000    0.0000
  16.1355    0.0000    0.0000
  16.2351    0.0000    0.0000
  16.3347    0.0000    0.0000
  16.4343    0.0000    0.0000
  16.5339    0.0000    0.0000
  16.6335    0.0000    0.0000
  16.7331    0.0000    0.0000
  16.8327    0.0000    0.0000
  16.9323    0.0000    0.0000
  17.0319    0.0000    0.0000
  17.1315    0.0000    0.0000
  17.2311    0.0000    0.0000
  17.3307    0.0000    0.0000
  17.4303    0.0000    0.0000
  17.5299    0.0000    0.0000
  17.6295    0.0000    0.0000
  17.7291    0.0000    0.0000
  17.8287    0.0000    0.0000
  17.9283    0.0000    0.0000
  18.0279    0.0000    0.0000
  18.1275    0.0000    0.0000
  18.2271    0.0000    0.0000
  18.3267    0.0000    0.0000
  18.4263    0.0000    0.0000
  18.5259    0.0000    0.0000
  18.6255    0.0000    0.0000
  18.7251    0.0000    0.0000
  18.8247    0.0000    0.0000
  18.9243    0.0000    0.0000
  19.0239    0.0000    0.0000
  19.1235    0.0000    0.0000
  19.2231    0.0000    0.0000
  19.3227    0.0000    0.0000
  19.4223    0.0000    0.0000
  19.5219    0.0000    0.0000
  19.6215    0.0000    0.0000
  19.7211    0.0000    0.0000
  19.8207    0.0000    0.0000
  19.9203    0.0000    0.0000
  20.0199    0.0000    0.0000
  20.1195    0.0000    0.0000
  20.2191    0.0000    0.0000
  20.3187    0.0000    0.0000
  20.4183    0.0000    0.0000
  20.5179    0.0000    0.0000
  20.6175    0.0000    0.0000
  20.7171    0.0000    0.0000
  20.8167    0.0000    0.0000
  20.9163    0.0000    0.0000
  21.0159    0.0000    0.0000
  21.1155    0.0000    0.0000
  21.2151    0.0000    0.0000
  21.3147    0.0000    0.0000
  21.4143    0.0000    0.0000
  21.5139    0.0000    0.0000
  21.6135    0.0000    0.0000
  21.7131    0.0000    0.0000
  21.8127    0.0000    0.0000
  21.9124    0.0000    0.0000
  22.0120    0.0000    0.0000
  22.1116    0.0000    0.0000
  22.2112    0.0000    0.0000
  22.3108    0.0000    0.0000
  22.4104    0.0000    0.0000
  22.5100    0.0000    0.0000
  22.6096    0.0000    0.0000
  22.7092    0.0000    0.0000
  22.8088    0.0000    0.0000
  22.9084    0.0000    0.0000
  23.0080    0.0000    0.0000
  23.1076    0.0000    0.0000
  23.2072    0.0000    0.0000
  23.3068    0.0000    0.0000
  23.4064    0.0000    0.0000
  23.5060    0.0000    0.0000
  23.6056    0.0000    0.0000
  23.7052    0.0000    0.0000
  23.8048    0.0000    0.0000
  23.9044    0.0000    0.0000
  24.0040    0.0000    0.0000
  24.1036    0.0000    0.0000
  24.2032    0.0000    0.0000
  24.3028    0.0000    0.0000
  24.4024    0.0000    0.0000
  24.5020    0.0000    0.0000
  24.6016    0.0000    0.0000
  24.7012    0.0000    0.0000
  24.8008    0.0000    0.0000
  24.9004    0.0000    0.0000
  25.0000    0.0000    0.0000
   0.0000    0.0993    0.0000
   0.0996    0.0993    0.0000
   0.1992    0.0993    0.0000
   0.2988    0.0993    0.0000
   0.3984    0.0993    0.0000
   0.4980    0.0993    0.0000
   0.5976    0.0993    0.0000
   0.6972    0.0993    0.0000
   0.7968    0.0993    0.0000
   0.8964    0.0993    0.0000
   0.9960    0.0993    0.0000
   1.0956    0.0993    0.0000
   1.1952    0.0993    0.0000
   1.2948    0.0993    0.0000
   1.3944    0.0993    0.0000
   1.4940    0.0993    0.0000
   1.5936    0.0993    0.0000
   1.6932    0.0993    0.0000
   1.7928    0.0993    0.0000
   1.8924    0.0993    0.0000
   1.9920    0.0993    0.0000
   2.0916    0.0993    0.0000
   2.1912    0.0993    0.0000
   2.2908    0.0993    0.0000
   2.3904    0.0993    0.0000
   2.4900    0.0993    0.0000
   2.5896    0.0993    0.0000
   2.6892    0.0993    0.0000
   2.7888    0.0993    0.0000
   2.8884    0.0993    0.0000
   2.9880    0.0993    0.0000
   3.0876    0.0993    0.0000
   3.1873    0.0993    0.0000
   3.2869    0.0993    0.0000
   3.3865    0.0993    0.0000
   3.4861    0.0993    0.0000
   3.5857    0.0993    0.0000
   3.6853    0.0993    0.0000
   3.7849    0.0993    0.0000
   3.8845    0.0993    0.0000
   3.9841    0.0993    0.0000
   4.0837    0.0993    0.0000
   4.1833    0.0993    0.0000
   4.2829    0.0993    0.0000
   4.3825    0.0993    0.0000
   4.4821    0.0993    0.0000
   4.5817    0.0993    0.0000
   4.6813    0.0993    0.0000
   4.7809    0.0993    0.0000
   4.8805    0.0993    0.0000
   4.9801    0.0993    0.0000
   5.0797    0.0993    0.0000
   5.1793    0.0993    0.0000
   5.2789    0.0993    0.0000
   5.3785    0.0993    0.0000
   5.4781    0.0993    0.0000
   5.5777    0.0993    0.0000
   5.6773    0.0993    0.0000
   5.7769    0.0993    0.0000
   5.8765    0.0993    0.0000
   5.9761    0.0993    0.0000
   6.0757    0.0993    0.0000
   6.1753    0.0993    0.0000
   6.2749    0.0993    0.0000
   6.3745    0.0993    0.0000
   6.4741    0.0993    0.0000
   6.5737    0.0993    0.0000
   6.6733    0.0993    0.0000
   6.7729    0.0993    0.0000
   6.8725    0.0993    0.0000
   6.9721    0.0993    0.0000
   7.0717    0.0993    0.0000
   7.1713    0.0993    0.0000
   7.2709    0.0993    0.0000
   7.3705    0.0993    0.0000
   7.4701    0.0993    0.0000
   7.5697    0.0993    0.0000
[...]
POINT_DATA     38304
SCALARS U float
LOOKUP_TABLE default
   1.0000000000000000     
   1.0000000000000000     
   1.0000000000000000     
   1.0000000000000000     
   1.0000000000000000     
   1.0000000000000000     
   1.0000000000000000     
   1.0000000000000000     
   1.0000000000000000     
   1.0000000000000000     
   1.0000000000000000     
   1.0000000000000000     
   1.0000000000000000     
   1.0000000000000000     
   1.0000000000000000     
   1.0000000000000000     
   1.0000000000000000     
   1.0000000000000000     
   1.0000000000000000     
   1.0000000000000000     
   1.0000000000000000     
   1.0000000000000000     
   1.0000000000000000     
   1.0000000000000000     
   1.0000000000000000     
   1.0000000000000000     
   1.0000000000000000     
   1.0000000000000000     
   1.0000000000000000     
   1.0000000000000000     
   1.0000000000000000     
   1.0000000000000000     
   1.0000000000000000     
   1.0000000000000000     
   1.0000000000000000     
   1.0000000000000000     
   1.0000000000000000     
   1.0000000000000000     
   1.0000000000000000     
   1.0000000000000000     
   1.0000000000000000     
   1.0000000000000000     
   1.0000000000000000     
   1.0000000000000000     
   1.0000000000000000     
   1.0000000000000000     
   1.0000000000000000     
   1.0000000000000000     
   1.0000000000000000     
   1.0000000000000000     
   1.0000000000000000     
   1.0000000000000000     
   1.0000000000000000     
   1.0000000000000000     
   1.0000000000000000     
   1.0000000000000000     
   1.0000000000000000     
   1.0000000000000000     
   1.0000000000000000     
   1.0000000000000000     
   1.0000000000000000     
   1.0000000000000000     
   1.0000000000000000     
   1.0000000000000000     
   1.0000000000000000     
   1.0000000000000000     
   1.0000000000000000     
   1.0000000000000000     
   1.0000000000000000     
   1.0000000000000000     
   1.0000000000000000     
   1.0000000000000000     
   1.0000000000000000     
   1.0000000000000000     
   1.0000000000000000     
   1.0000000000000000     
   1.0000000000000000     
   1.0000000000000000     
   1.0000000000000000     
   1.0000000000000000     
   1.0000000000000000     
   1.0000000000000000     
   1.0000000000000000     
   1.0000000000000000     
   1.0000000000000000     
   1.0000000000000000     
   1.0000000000000000     
   1.0000000000000000     
   1.0000000000000000     
   1.0000000000000000     
   1.0000000000000000     
   1.0000000000000000     
   1.0000000000000000     
   1.0000000000000000     
   1.0000000000000000     
   1.0000000000000000     
   1.0000000000000000     
   1.0000000000000000     
   1.0000000000000000     
   1.0000000000000000     
   1.0000000000000000     
   1.0000000000000000     
   1.0000000000000000     
   1.0000000000000000     
   1.0000000000000000     
   1.0000000000000000     
   1.0000000000000000     
   1.0000000000000000     
   1.0000000000000000     
   1.0000000000000000     
   1.0000000000000000     
   1.0000000000000000     
   1.0000000000000000     
   1.0000000000000000     
   1.0000000000000000     
   1.0000000000000000     
   1.0000000000000000     
   1.0000000000000000     
   1.0000000000000000     
   1.0000000000000000     
   1.0000000000000000     
   1.0000000000000000     
   1.0000000000000000     
   1.0000000000000000     
   1.0000000000000000     
   1.0000000000000000     
   1.0000000000000000     
   1.0000000000000000     
   1.0000000000000000     
   1.0000000000000000     
   1.0000000000000000     
   1.0000000000000000     
   1.0000000000000000     
   1.0000000000000000     
   1.0000000000000000     
   1.0000000000000000     
   1.0000000000000000     
   1.0000000000000000     
   1.0000000000000000     
   1.0000000000000000     
   1.0000000000000000     
   1.0000000000000000     
   1.0000000000000000     
   1.0000000000000000     
   1.0000000000000000     
   1.0000000000000000     
   1.0000000000000000     
   1.0000000000000000     
   1.0000000000000000     
   1.0000000000000000     
   1.0000000000000000     
   1.0000000000000000     
   1.0000000000000000     
   1.0000000000000000     
   1.0000000000000000     
   1.0000000000000000     
   1.0000000000000000     
   1.0000000000000000     
   1.0000000000000000     
   1.0000000000000000     
   1.0000000000000000     
   1.0000000000000000     
   1.0000000000000000     
   1.0000000000000000     
   1.0000000000000000     
   1.0000000000000000     
   1.0000000000000000     
   1.0000000000000000     
   1.0000000000000000     
   1.0000000000000000     
   1.0000000000000000     
   1.0000000000000000     
   1.0000000000000000     
   1.0000000000000000     
   1.0000000000000000     
   1.0000000000000000     
   1.0000000000000000     
   1.0000000000000000     
   1.0000000000000000     
   1.0000000000000000     
   1.0000000000000000     
   1.0000000000000000     
   1.0000000000000000     
   1.0000000000000000     
   1.0000000000000000     
   1.0000000000000000     
   1.0000000000000000     
   1.0000000000000000     
   1.0000000000000000     
   1.0000000000000000     
   1.0000000000000000     
   1.0000000000000000     
   1.0000000000000000     
   1.0000000000000000     
   1.0000000000000000     
   1.0000000000000000     
   1.0000000000000000     
   1.0000000000000000     
   1.0000000000000000     
   1.0000000000000000     
   1.0000000000000000     
   1.0000000000000000     
   1.0000000000000000     
   1.0000000000000000     
   1.0000000000000000     
   1.0000000000000000     
   1.0000000000000000     
   1.0000000000000000     
   1.0000000000000000     
   1.0000000000000000     
   1.0000000000000000     
   1.0000000000000000     
   1.0000000000000000     
   1.0000000000000000     
   1.0000000000000000     
   1.0000000000000000     
   1.0000000000000000     
   1.0000000000000000     
   1.0000000000000000     
   1.0000000000000000     
   1.0000000000000000     
   1.0000000000000000     
   1.0000000000000000     
   1.0000000000000000     
   1.0000000000000000     
   1.0000000000000000     
   1.0000000000000000     
   1.0000000000000000     
   1.0000000000000000     
   1.0000000000000000     
   1.0000000000000000     
   1.0000000000000000     
   1.0000000000000000     
   1.0000000000000000     
   1.0000000000000000     
   1.0000000000000000     
   1.0000000000000000     
   1.0000000000000000     
   1.0000000000000000     
   1.0000000000000000     
   1.0000000000000000     
   1.0000000000000000     
   1.0000000000000000     
   1.0000000000000000     
   1.0000000000000000     
   1.0000000000000000     
   1.0000000000000000     
   1.0000000000000000     
   1.0000000000000000     
   1.0000000000000000     
   1.0000000000000000     
   1.0000000000000000     
   1.0000000000000000     
  0.99865004844117522     
  0.99911850694124926     
  0.99885772014785401     
  0.99905216522168794     
  0.99915852522365534     
  0.99939231556395092     
  0.99964386436383745     
  0.99994212930937032     
   1.0002611916915252     
   1.0005999103694263     
   1.0009502067281482     
   1.0013091637158862     
   1.0016742504133727     
   1.0020445255969683     
   1.0024198115327529     
   1.0028004420541805     
   1.0031869776781590     
   1.0035799616061123     
   1.0039798077722566     
   1.0043867195223903     
   1.0048006841301338     
   1.0052214843106622     
   1.0056487331788682     
   1.0060819101769216     
   1.0065203992300282     
   1.0069635242905255     
   1.0074105838425595     
   1.0078608834529916     
   1.0083137659173462     
   1.0087686372640603     
   1.0092249868714678     
   1.0096823999690261     
   1.0101405612578735     
   1.0105992487916597     
   1.0110583175823780     
   1.0115176726066111     
   1.0119772312309747     
   1.0124368758868900     
   1.0128963993232967     
   1.0133554468165569     
   1.0138134617377885     
   1.0142696420584256     
   1.0147229150307284     
   1.0151719352171127     
   1.0156151076503575     
   1.0160506340136952     
   1.0164765762667967     
   1.0168909298494122     
   1.0172916978326163     
   1.0176769581342142     
   1.0180449178355080     
   1.0183939512171118     
   1.0187226208054676     
   1.0190296829945744     
   1.0193140813507884     
   1.0195749314125848     
   1.0198115007579833     
   1.0200231875628369     
   1.0202095000840146     
   1.0203700386943204     
   1.0205044813993238     
   1.0206125732194633     
   1.0206941194096415     
   1.0207489821849374     
   1.0207770804073435     
   1.0207783915599369     
   1.0207529552895294     
   1.0207008778254780     
   1.0206223366572824     
   1.0205175849471468     
   1.0203869552409133     
   1.0202308621109095     
   1.0200498034222942     
   1.0198443599765759     
   1.0196151933692490     
   1.0193630420128477     
   1.0190887154193025     
   1.0187930869915591     
   1.0184770857216039     
   1.0181416873067284     
   1.0177879052588525     
   1.0174167825818665     
   1.0170293845276597     
   1.0166267928205106     
   1.0162101015771525     
   1.0157804149670779     
   1.0153388464776125     
   1.0148865194931853     
   1.0144245687856832     
   1.0139541424531142     
   1.0134764038388535     
   1.0129925330071685     
   1.0125037274301083     
   1.0120112016408402     
   1.0115161857138979     
   1.0110199225310883     
   1.0105236638746211     
   1.0100286654522634     
   1.0095361810025978     
   1.0090474556537476     
   1.0085637187195298     
   1.0080861761164344     
   1.0076160025763117     
   1.0071543338157647     
   1.0067022588059262     
   1.0062608122670131     
   1.0058309674919190     
   1.0054136295830871     
   1.0050096291680422     
   1.0046197166420880     
   1.0042445569728133     
   1.0038847250907708     
   1.0035407018843834     
   1.0032128708146411     
   1.0029015151658374     
   1.0026068159514061     
   1.0023288504976615     
   1.0020675917315813     
   1.0018229082008143     
   1.0015945648541194     
   1.0013822246082669     
   1.0011854507232376     
   1.0010037100015932     
   1.0008363768206250     
   1.0006827379976213     
   1.0005419984794643     
   1.0004132878378817     
   1.0002956675408974     
   1.0001881389594451     
   1.0000896520556455     
  0.99999911468625002     
  0.99991540244149724     
  0.99983736892665342     
  0.99976385638143628     
  0.99969370652186917     
  0.99962577148050213     
  0.99955892471475649     
  0.99949207174972443     
  0.99942416062124284     
  0.99935419188752761     
  0.99928122808295428     
  0.99920440249566245     
  0.99912292716111439     
  0.99903609997653442     
  0.99894331085559374     
  0.99884404685891015     
  0.99873789625285614     
  0.99862455146728391     
  0.99850381094045115     
  0.99837557985788505     
  0.99823986980847890     
  0.99809679739843282     
  0.99794658187719354     
  0.99778954184459168     
  0.99762609111710654     
  0.99745673384343525     
  0.99728205896177236     
  0.99710273410108474     
  0.99691949902267485     
  0.99673315870757440     
  0.99654457617897896     
  0.99635466516107107     
  0.99616438264573359     
  0.99597472145964339     
  0.99578670287552762     
  0.99560136935078891     
  0.99541977739979226     
  0.99524299067910404     
  0.99507207324373714     
  0.99490808306288248     
  0.99475206569076080     
  0.99460504821390749     
  0.99446803328641176     
  0.99434199344569185     
  0.99422786540053432     
  0.99412654461537153     
  0.99403887970295945     
  0.99396566717371992     
  0.99390764577498403     
  0.99386549133601509     
  0.99383981091043017     
  0.99383113772119647     
  0.99383992499570351     
  0.99386654112916495     
  0.99391126314159972     
  0.99397427233331115     
  0.99405564732292662     
  0.99415536066691435     
  0.99427327143434419     
  0.99440912350901911     
  0.99456253758796964     
  0.99473301219109544     
  0.99491991479423225     
  0.99512248695832672     
  0.99533983396833758     
  0.99557093599753599     
  0.99581463504778456     
  0.99606965474046960     
  0.99633458244915707     
  0.99660790123920640     
  0.99688796373644650     
  0.99717304103548465     
  0.99746128292645908     
  0.99775079039757619     
  0.99803955421325496     
  0.99832556009560425     
  0.99860669421913040     
  0.99888089335927843     
  0.99914600168629975     
  0.99939998200896729     
  0.99964070370027935     
  0.99986623503501715     
   1.0000745383072096     
   1.0002638654599254     
   1.0004323361748457     
   1.0005784555781532     
   1.0007005601386361     
   1.0007974588682940     
   1.0008677621349120     
   1.0009105997632510     
   1.0009249226149040     
   1.0009101400539981     
   1.0008656477323847     
   1.0007909921268832     
   1.0006862132793615     
   1.0005506728035582     
   1.0003854597666628     
   1.0001891049666265     
  0.99996455820111718     
  0.99970828481374507     
  0.99942667914086758     
  0.99911183787393465     
  0.99877660713147176     
  0.99840448434143936     
  0.99802034769945280     
  0.99759142130496459     
  0.99716477339089049     
  0.99667760282906392     
  0.99621734478995339     
  0.99566685214601769     
  0.99518590940761709     
  0.99456065493693080     
  0.99407848987225345     
  0.99335629548606608     
  0.99290272367184140     
  0.99204346426996892     
  0.99166393731467017     
  0.99059658127043060     
  0.99035889668332955     
  0.98895250927330070     
  0.98895250927330070     
   1.0000000000000000     
  0.99862747234734950     
  0.99928527674515633     
  0.99897299410073370     
  0.99914414484765746     
  0.99920176129750060     
  0.99941103970930911     
  0.99965905296087343     
  0.99998350298578387     
   1.0003565536735071     
   1.0007756697751857     
   1.0012292504292435     
   1.0017109119852061     
   1.0022147447988827     
   1.0027369614100292     
   1.0032751515401492     
   1.0038280227365441     
   1.0043950377332724     
   1.0049760447316312     
   1.0055710463142791     
   1.0061800072755878     
   1.0068027667371842     
   1.0074389907636561     
   1.0080881724011341     
   1.0087496499550461     
   1.0094226408387401     
   1.0101062815731094     
   1.0107996725571162     
   1.0115019240692964     
   1.0122122010044274     
   1.0129297627131950     
   1.0136539945207039     
   1.0143844277066174     
   1.0151207454667002     
   1.0158627730938745     
   1.0166104512872507     
   1.0173637920896024     
   1.0181228177581199     
   1.0188874842951905     
   1.0196575936509369     
   1.0204327015505910     
   1.0212120307106825     
   1.0219944008051309     
   1.0227781860023801     
   1.0235613079395942     
   1.0243412671349730     
   1.0251152101820546     
   1.0258800249154079     
   1.0266324521567385     
   1.0273692012231577     
   1.0280870571476162     
   1.0287829701139675     
   1.0294541212499178     
   1.0300979628467182     
   1.0307122345534780     
   1.0312949596088621     
   1.0318444265064670     
   1.0323591617204964     
   1.0328378985354154     
   1.0332795459952042     
   1.0336831608392831     
   1.0340479242320875     
   1.0343731242097935     
   1.0346581440676104     
   1.0349024563714007     
   1.0351056218803458     
   1.0352672924079458     
   1.0353872165236451     
   1.0354652469910952     
   1.0355013489183471     
   1.0354956077173612     
   1.0354482360978396     
   1.0353595794344328     
   1.0352301189503459     
   1.0350604722738039     
   1.0348513910698094     
   1.0346037556417498     
   1.0343185666319359     
   1.0339969342055324     
   1.0336400653450744     
   1.0332492500761934     
   1.0328258475583449     
   1.0323712729878782     
   1.0318869861701712     
   1.0313744824329103     
   1.0308352862968795     
   1.0302709480261283     
   1.0296830428829242     
   1.0290731726504971     
   1.0284429687878991     
   1.0277940964651504     
   1.0271282586987973     
   1.0264471998605704     
   1.0257527079473925     
   1.0250466151559434     
   1.0243307964753359     
   1.0236071661760084     
   1.0228776722169475     
   1.0221442887081587     
   1.0214090066486206     
   1.0206738232134716     
   1.0199407298922152     
   1.0192116997875440     
   1.0184886743769006     
   1.0177735500206031     
   1.0170681644745430     
   1.0163742836349867     
   1.0156935887100038     
   1.0150276639784184     
   1.0143779852648891     
   1.0137459092303200     
   1.0131326635520743     
   1.0125393380494543     
   1.0119668767973602     
   1.0114160712647451     
   1.0108875545135858     
   1.0103817964969144     
   1.0098991004991211     
   1.0094396007661763     
   1.0090032613760478     
   1.0085898763991890     
   1.0081990713952929     
   1.0078303062854415     
   1.0074828796290385     
   1.0071559343229080     
   1.0068484647263791     
   1.0065593252012139     
   1.0062872400391114     
   1.0060308147321135     
   1.0057885485225351     
   1.0055588481491584     
   1.0053400426855903     
   1.0051303993454914     
   1.0049281401085484     
   1.0047314590014680     
   1.0045385398508255     
   1.0043475743101373     
   1.0041567799527020     
   1.0039644182151102     
   1.0037688119740495     
   1.0035683625413019     
   1.0033615658684394     
   1.0031470277636012     
   1.0029234779373217     
   1.0026897827125703     
   1.0024449562551252     
   1.0021881702041260     
   1.0019187616078611     
   1.0016362390970568     
   1.0013402872549921     
   1.0010307691721958     
   1.0007077271997689     
   1.0003713819428213     
   1.0000221295582645     
  0.99966053744586003     
  0.99928733843785167     
  0.99890342361335960     
  0.99850983387118020     
  0.99810775041183142     
  0.99769848427553987     
  0.99728346509837751     
  0.99686422922987028     
  0.99644240737369416     
  0.99601971187497595     
  0.99559792380671674     
  0.99517887994328436     
  0.99476445976158823     
  0.99435657250697862     
  0.99395714445789762     
  0.99356810635912163     
  0.99319138116736350     
  0.99282887199148795     
  0.99248245041215666     
  0.99215394494556264     
  0.99184512992937957     
  0.99155771442941409     
  0.99129333162101041     
  0.99105352799640301     
  0.99083975315607131     
  0.99065334915272840     
  0.99049554064784051     
  0.99036742424413493     
  0.99026995906200876     
  0.99020395595723432     
  0.99017006873115143     
  0.99016878318741908     
  0.99020040940868803     
  0.99026507065089531     
  0.99036269739907157     
  0.99049301609518126     
  0.99065554603315420     
  0.99084958782013266     
  0.99107422460117445     
  0.99132830990237764     
  0.99161047521923074     
  0.99191911640228192     
  0.99225241035220468     
  0.99260829827817210     
  0.99298451520105435     
  0.99337856710398686     
  0.99378777827799070     
  0.99420925742003396     
  0.99463996973855751     
  0.99507668422789652     
  0.99551608011248716     
  0.99595466360806983     
  0.99638892198287443     
  0.99681519290054776     
  0.99722988433880599     
  0.99762927302887539     
  0.99800981471683381     
  0.99836784058777805     
  0.99869998932952542     
  0.99900276297693080     
  0.99927311806745533     
  0.99950783821270317     
  0.99970432166477519     
  0.99985973418834861     
  0.99997201437914129     
   1.0000388018178785     
   1.0000586285890880     
   1.0000297036391734     
  0.99995112807984177     
  0.99982181390983826     
  0.99964127353070120     
  0.99940936663775293     
  0.99912562461295995     
  0.99879135195596658     
  0.99840528490262070     
  0.99797118582406485     
  0.99748541464996354     
  0.99695620033113597     
  0.99637454833048289     
  0.99575701970643804     