# vtk DataFile Version 3.0
test
ASCII 
DATASET STRUCTURED_GRID
DIMENSIONS  252 152   1
POINTS     38304 float
   0.0000    0.0000    0.0000
   0.0996    0.0000    0.0000
   0.1992    0.0000    0.0000
   0.2988    0.0000    0.0000
   0.3984    0.0000    0.0000
   0.4980    0.0000    0.0000
   0.5976    0.0000    0.0000
   0.6972    0.0000    0.0000
   0.7968    0.0000    0.0000
   0.8964    0.0000    0.0000
   0.9960    0.0000    0.0000
   1.0956    0.0000    0.0000
   1.1952    0.0000    0.0000
   1.2948    0.0000    0.0000
   1.3944    0.0000    0.0000
   1.4940    0.0000    0.0000
   1.5936    0.0000    0.0000
   1.6932    0.0000    0.0000
   1.7928    0.0000    0.0000
   1.8924    0.0000    0.0000
   1.9920    0.0000    0.0000
   2.0916    0.0000    0.0000
   2.1912    0.0000    0.0000
   2.2908    0.0000    0.0000
   2.3904    0.0000    0.0000
   2.4900    0.0000    0.0000
   2.5896    0.0000    0.0000
   2.6892    0.0000    0.0000
   2.7888    0.0000    0.0000
   2.8884    0.0000    0.0000
   2.9880    0.0000    0.0000
   3.0876    0.0000    0.0000
   3.1873    0.0000    0.0000
   3.2869    0.0000    0.0000
   3.3865    0.0000    0.0000
   3.4861    0.0000    0.0000
   3.5857    0.0000    0.0000
   3.6853    0.0000    0.0000
   3.7849    0.0000    0.0000
   3.8845    0.0000    0.0000
   3.9841    0.0000    0.0000
   4.0837    0.0000    0.0000
   4.1833    0.0000    0.0000
   4.2829    0.0000    0.0000
   4.3825    0.0000    0.0000
   4.4821    0.0000    0.0000
   4.5817    0.0000    0.0000
   4.6813    0.0000    0.0000
   4.7809    0.0000    0.0000
   4.8805    0.0000    0.0000
   4.9801    0.0000    0.0000
   5.0797    0.0000    0.0000
   5.1793    0.0000    0.0000
   5.2789    0.0000    0.0000
   5.3785    0.0000    0.0000
   5.4781    0.0000    0.0000
   5.5777    0.0000    0.0000
   5.6773    0.0000    0.0000
   5.7769    0.0000    0.0000
   5.8765    0.0000    0.0000
   5.9761    0.0000    0.0000
   6.0757    0.0000    0.0000
   6.1753    0.0000    0.0000
   6.2749    0.0000    0.0000
   6.3745    0.0000    0.0000
   6.4741    0.0000    0.0000
   6.5737    0.0000    0.0000
   6.6733    0.0000    0.0000
   6.7729    0.0000    0.0000
   6.8725    0.0000    0.0000
   6.9721    0.0000    0.0000
   7.0717    0.0000    0.0000
   7.1713    0.0000    0.0000
   7.2709    0.0000    0.0000
   7.3705    0.0000    0.0000
   7.4701    0.0000    0.0000
   7.5697    0.0000    0.0000
   7.6693    0.0000    0.0000
   7.7689    0.0000    0.0000
   7.8685    0.0000    0.0000
   7.9681    0.0000    0.0000
   8.0677    0.0000    0.0000
   8.1673    0.0000    0.0000
   8.2669    0.0000    0.0000
   8.3665    0.0000    0.0000
   8.4661    0.0000    0.0000
   8.5657    0.0000    0.0000
   8.6653    0.0000    0.0000
   8.7649    0.0000    0.0000
   8.8645    0.0000    0.0000
   8.9641    0.0000    0.0000
   9.0637    0.0000    0.0000
   9.1633    0.0000    0.0000
   9.2629    0.0000    0.0000
   9.3625    0.0000    0.0000
   9.4622    0.0000    0.0000
   9.5618    0.0000    0.0000
   9.6614    0.0000    0.0000
   9.7610    0.0000    0.0000
   9.8606    0.0000    0.0000
   9.9602    0.0000    0.0000
  10.0598    0.0000    0.0000
  10.1594    0.0000    0.0000
  10.2590    0.0000    0.0000
  10.3586    0.0000    0.0000
  10.4582    0.0000    0.0000
  10.5578    0.0000    0.0000
  10.6574    0.0000    0.0000
  10.7570    0.0000    0.0000
  10.8566    0.0000    0.0000
  10.9562    0.0000    0.0000
  11.0558    0.0000    0.0000
  11.1554    0.0000    0.0000
  11.2550    0.0000    0.0000
  11.3546    0.0000    0.0000
  11.4542    0.0000    0.0000
  11.5538    0.0000    0.0000
  11.6534    0.0000    0.0000
  11.7530    0.0000    0.0000
  11.8526    0.0000    0.0000
  11.9522    0.0000    0.0000
  12.0518    0.0000    0.0000
  12.1514    0.0000    0.0000
  12.2510    0.0000    0.0000
  12.3506    0.0000    0.0000
  12.4502    0.0000    0.0000
  12.5498    0.0000    0.0000
  12.6494    0.0000    0.0000
  12.7490    0.0000    0.0000
  12.8486    0.0000    0.0000
  12.9482    0.0000    0.0000
  13.0478    0.0000    0.0000
  13.1474    0.0000    0.0000
  13.2470    0.0000    0.0000
  13.3466    0.0000    0.0000
  13.4462    0.0000    0.0000
  13.5458    0.0000    0.0000
  13.6454    0.0000    0.0000
  13.7450    0.0000    0.0000
  13.8446    0.0000    0.0000
  13.9442    0.0000    0.0000
  14.0438    0.0000    0.0000
  14.1434    0.0000    0.0000
  14.2430    0.0000    0.0000
  14.3426    0.0000    0.0000
  14.4422    0.0000    0.0000
  14.5418    0.0000    0.0000
  14.6414    0.0000    0.0000
  14.7410    0.0000    0.0000
  14.8406    0.0000    0.0000
  14.9402    0.0000    0.0000
  15.0398    0.0000    0.0000
  15.1394    0.0000    0.0000
  15.2390    0.0000    0.0000
  15.3386    0.0000    0.0000
  15.4382    0.0000    0.0000
  15.5378    0.0000    0.0000
  15.6375    0.0000    0.0000
  15.7371    0.0000    0.0000
  15.8367    0.0000    0.0000
  15.9363    0.0000    0.0000
  16.0359    0.0000    0.0000
  16.1355    0.0000    0.0000
  16.2351    0.0000    0.0000
  16.3347    0.0000    0.0000
  16.4343    0.0000    0.0000
  16.5339    0.0000    0.0000
  16.6335    0.0000    0.0000
  16.7331    0.0000    0.0000
  16.8327    0.0000    0.0000
  16.9323    0.0000    0.0000
  17.0319    0.0000    0.0000
  17.1315    0.0000    0.0000
  17.2311    0.0000    0.0000
  17.3307    0.0000    0.0000
  17.4303    0.0000    0.0000
  17.5299    0.0000    0.0000
  17.6295    0.0000    0.0000
  17.7291    0.0000    0.0000
  17.8287    0.0000    0.0000
  17.9283    0.0000    0.0000
  18.0279    0.0000    0.0000
  18.1275    0.0000    0.0000
  18.2271    0.0000    0.0000
  18.3267    0.0000    0.0000
  18.4263    0.0000    0.0000
  18.5259    0.0000    0.0000
  18.6255    0.0000    0.0000
  18.7251    0.0000    0.0000
  18.8247    0.0000    0.0000
  18.9243    0.0000    0.0000
  19.0239    0.0000    0.0000
  19.1235    0.0000    0.0000
  19.2231    0.0000    0.0000
  19.3227    0.0000    0.0000
  19.4223    0.0000    0.0000
  19.5219    0.0000    0.0000
  19.6215    0.0000    0.0000
  19.7211    0.0000    0.0000
  19.8207    0.0000    0.0000
  19.9203    0.0000    0.0000
  20.0199    0.0000    0.0000
  20.1195    0.0000    0.0000
  20.2191    0.0000    0.0000
  20.3187    0.0000    0.0000
  20.4183    0.0000    0.0000
  20.5179    0.0000    0.0000
  20.6175    0.0000    0.0000
  20.7171    0.0000    0.0000
  20.8167    0.0000    0.0000
  20.9163    0.0000    0.0000
  21.0159    0.0000    0.0000
  21.1155    0.0000    0.0000
  21.2151    0.0000    0.0000
  21.3147    0.0000    0.0000
  21.4143    0.0000    0.0000
  21.5139    0.0000    0.0000
  21.6135    0.0000    0.0000
  21.7131    0.0000    0.0000
  21.8127    0.0000    0.0000
  21.9124    0.0000    0.0000
  22.0120    0.0000    0.0000
  22.1116    0.0000    0.0000
  22.2112    0.0000    0.0000
  22.3108    0.0000    0.0000
  22.4104    0.0000    0.0000
  22.5100    0.0000    0.0000
  22.6096    0.0000    0.0000
  22.7092    0.0000    0.0000
  22.8088    0.0000    0.0000
  22.9084    0.0000    0.0000
  23.0080    0.0000    0.0000
  23.1076    0.0000    0.0000
  23.2072    0.0000    0.0000
  23.3068    0.0000    0.0000
  23.4064    0.0000    0.0000
  23.5060    0.0000    0.0000
  23.6056    0.0000    0.0000
  23.7052    0.0000    0.0000
  23.8048    0.0000    0.0000
  23.9044    0.0000    0.0000
  24.0040    0.0000    0.0000
  24.1036    0.0000    0.0000
  24.2032    0.0000    0.0000
  24.3028    0.0000    0.0000
  24.4024    0.0000    0.0000
  24.5020    0.0000    0.0000
  24.6016    0.0000    0.0000
  24.7012    0.0000    0.0000
  24.8008    0.0000    0.0000
  24.9004    0.0000    0.0000
  25.0000    0.0000    0.0000
   0.0000    0.0993    0.0000
   0.0996    0.0993    0.0000
   0.1992    0.0993    0.0000
   0.2988    0.0993    0.0000
   0.3984    0.0993    0.0000
   0.4980    0.0993    0.0000
   0.5976    0.0993    0.0000
   0.6972    0.0993    0.0000
   0.7968    0.0993    0.0000
   0.8964    0.0993    0.0000
   0.9960    0.0993    0.0000
   1.0956    0.0993    0.0000
   1.1952    0.0993    0.0000
   1.2948    0.0993    0.0000
   1.3944    0.0993    0.0000
   1.4940    0.0993    0.0000
   1.5936    0.0993    0.0000
   1.6932    0.0993    0.0000
   1.7928    0.0993    0.0000
   1.8924    0.0993    0.0000
   1.9920    0.0993    0.0000
   2.0916    0.0993    0.0000
   2.1912    0.0993    0.0000
   2.2908    0.0993    0.0000
   2.3904    0.0993    0.0000
   2.4900    0.0993    0.0000
   2.5896    0.0993    0.0000
   2.6892    0.0993    0.0000
   2.7888    0.0993    0.0000
   2.8884    0.0993    0.0000
   2.9880    0.0993    0.0000
   3.0876    0.0993    0.0000
   3.1873    0.0993    0.0000
   3.2869    0.0993    0.0000
   3.3865    0.0993    0.0000
   3.4861    0.0993    0.0000
   3.5857    0.0993    0.0000
   3.6853    0.0993    0.0000
   3.7849    0.0993    0.0000
   3.8845    0.0993    0.0000
   3.9841    0.0993    0.0000
   4.0837    0.0993    0.0000
   4.1833    0.0993    0.0000
   4.2829    0.0993    0.0000
   4.3825    0.0993    0.0000
   4.4821    0.0993    0.0000
   4.5817    0.0993    0.0000
   4.6813    0.0993    0.0000
   4.7809    0.0993    0.0000
   4.8805    0.0993    0.0000
   4.9801    0.0993    0.0000
   5.0797    0.0993    0.0000
   5.1793    0.0993    0.0000
   5.2789    0.0993    0.0000
   5.3785    0.0993    0.0000
   5.4781    0.0993    0.0000
   5.5777    0.0993    0.0000
   5.6773    0.0993    0.0000
   5.7769    0.0993    0.0000
   5.8765    0.0993    0.0000
   5.9761    0.0993    0.0000
   6.0757    0.0993    0.0000
   6.1753    0.0993    0.0000
   6.2749    0.0993    0.0000
   6.3745    0.0993    0.0000
   6.4741    0.0993    0.0000
   6.5737    0.0993    0.0000
   6.6733    0.0993    0.0000
   6.7729    0.0993    0.0000
   6.8725    0.0993    0.0000
   6.9721    0.0993    0.0000
   7.0717    0.0993    0.0000
   7.1713    0.0993    0.0000
   7.2709    0.0993    0.0000
   7.3705    0.0993    0.0000
   7.4701    0.0993    0.0000
   7.5697    0.0993    0.0000
[...]
POINT_DATA     38304
SCALARS U float
LOOKUP_TABLE default
   1.0000000000000000     
   1.0000000000000000     
   1.0000000000000000     
   1.0000000000000000     
   1.0000000000000000     
   1.0000000000000000     
   1.0000000000000000     
   1.0000000000000000     
   1.0000000000000000     
   1.0000000000000000     
   1.0000000000000000     
   1.0000000000000000     
   1.0000000000000000     
   1.0000000000000000     
   1.0000000000000000     
   1.0000000000000000     
   1.0000000000000000     
   1.0000000000000000     
   1.0000000000000000     
   1.0000000000000000     
   1.0000000000000000     
   1.0000000000000000     
   1.0000000000000000     
   1.0000000000000000     
   1.0000000000000000     
   1.0000000000000000     
   1.0000000000000000     
   1.0000000000000000     
   1.0000000000000000     
   1.0000000000000000     
   1.0000000000000000     
   1.0000000000000000     
   1.0000000000000000     
   1.0000000000000000     
   1.0000000000000000     
   1.0000000000000000     
   1.0000000000000000     
   1.0000000000000000     
   1.0000000000000000     
   1.0000000000000000     
   1.0000000000000000     
   1.0000000000000000     
   1.0000000000000000     
   1.0000000000000000     
   1.0000000000000000     
   1.0000000000000000     
   1.0000000000000000     
   1.0000000000000000     
   1.0000000000000000     
   1.0000000000000000     
   1.0000000000000000     
   1.0000000000000000     
   1.0000000000000000     
   1.0000000000000000     
   1.0000000000000000     
   1.0000000000000000     
   1.0000000000000000     
   1.0000000000000000     
   1.0000000000000000     
   1.0000000000000000     
   1.0000000000000000     
   1.0000000000000000     
   1.0000000000000000     
   1.0000000000000000     
   1.0000000000000000     
   1.0000000000000000     
   1.0000000000000000     
   1.0000000000000000     
   1.0000000000000000     
   1.0000000000000000     
   1.0000000000000000     
   1.0000000000000000     
   1.0000000000000000     
   1.0000000000000000     
   1.0000000000000000     
   1.0000000000000000     
   1.0000000000000000     
   1.0000000000000000     
   1.0000000000000000     
   1.0000000000000000     
   1.0000000000000000     
   1.0000000000000000     
   1.0000000000000000     
   1.0000000000000000     
   1.0000000000000000     
   1.0000000000000000     
   1.0000000000000000     
   1.0000000000000000     
   1.0000000000000000     
   1.0000000000000000     
   1.0000000000000000     
   1.0000000000000000     
   1.0000000000000000     
   1.0000000000000000     
   1.0000000000000000     
   1.0000000000000000     
   1.0000000000000000     
   1.0000000000000000     
   1.0000000000000000     
   1.0000000000000000     
   1.0000000000000000     
   1.0000000000000000     
   1.0000000000000000     
   1.0000000000000000     
   1.0000000000000000     
   1.0000000000000000     
   1.0000000000000000     
   1.0000000000000000     
   1.0000000000000000     
   1.0000000000000000     
   1.0000000000000000     
   1.0000000000000000     
   1.0000000000000000     
   1.0000000000000000     
   1.0000000000000000     
   1.0000000000000000     
   1.0000000000000000     
   1.0000000000000000     
   1.0000000000000000     
   1.0000000000000000     
   1.0000000000000000     
   1.0000000000000000     
   1.0000000000000000     
   1.0000000000000000     
   1.0000000000000000     
   1.0000000000000000     
   1.0000000000000000     
   1.0000000000000000     
   1.0000000000000000     
   1.0000000000000000     
   1.0000000000000000     
   1.0000000000000000     
   1.0000000000000000     
   1.0000000000000000     
   1.0000000000000000     
   1.0000000000000000     
   1.0000000000000000     
   1.0000000000000000     
   1.0000000000000000     
   1.0000000000000000     
   1.0000000000000000     
   1.0000000000000000     
   1.0000000000000000     
   1.0000000000000000     
   1.0000000000000000     
   1.0000000000000000     
   1.0000000000000000     
   1.0000000000000000     
   1.0000000000000000     
   1.0000000000000000     
   1.0000000000000000     
   1.0000000000000000     
   1.0000000000000000     
   1.0000000000000000     
   1.0000000000000000     
   1.0000000000000000     
   1.0000000000000000     
   1.0000000000000000     
   1.0000000000000000     
   1.0000000000000000     
   1.0000000000000000     
   1.0000000000000000     
   1.0000000000000000     
   1.0000000000000000     
   1.0000000000000000     
   1.0000000000000000     
   1.0000000000000000     
   1.0000000000000000     
   1.0000000000000000     
   1.0000000000000000     
   1.0000000000000000     
   1.0000000000000000     
   1.0000000000000000     
   1.0000000000000000     
   1.0000000000000000     
   1.0000000000000000     
   1.0000000000000000     
   1.0000000000000000     
   1.0000000000000000     
   1.0000000000000000     
   1.0000000000000000     
   1.0000000000000000     
   1.0000000000000000     
   1.0000000000000000     
   1.0000000000000000     
   1.0000000000000000     
   1.0000000000000000     
   1.0000000000000000     
   1.0000000000000000     
   1.0000000000000000     
   1.0000000000000000     
   1.0000000000000000     
   1.0000000000000000     
   1.0000000000000000     
   1.0000000000000000     
   1.0000000000000000     
   1.0000000000000000     
   1.0000000000000000     
   1.0000000000000000     
   1.0000000000000000     
   1.0000000000000000     
   1.0000000000000000     
   1.0000000000000000     
   1.0000000000000000     
   1.0000000000000000     
   1.0000000000000000     
   1.0000000000000000     
   1.0000000000000000     
   1.0000000000000000     
   1.0000000000000000     
   1.0000000000000000     
   1.0000000000000000     
   1.0000000000000000     
   1.0000000000000000     
   1.0000000000000000     
   1.0000000000000000     
   1.0000000000000000     
   1.0000000000000000     
   1.0000000000000000     
   1.0000000000000000     
   1.0000000000000000     
   1.0000000000000000     
   1.0000000000000000     
   1.0000000000000000     
   1.0000000000000000     
   1.0000000000000000     
   1.0000000000000000     
   1.0000000000000000     
   1.0000000000000000     
   1.0000000000000000     
   1.0000000000000000     
   1.0000000000000000     
   1.0000000000000000     
   1.0000000000000000     
   1.0000000000000000     
   1.0000000000000000     
   1.0000000000000000     
   1.0000000000000000     
   1.0000000000000000     
   1.0000000000000000     
   1.0000000000000000     
   1.0000000000000000     
   1.0000000000000000     
   1.0000000000000000     
   1.0000000000000000     
   1.0000000000000000     
   1.0000000000000000     
   1.0000000000000000     
   1.0000000000000000     
   1.0000000000000000     
   1.0000000000000000     
   1.0000000000000000     
   1.0000000000000000     
  0.99834061448331479     
  0.99899758935935778     
  0.99822653598236721     
  0.99832340267285469     
  0.99798480213711371     
  0.99796822356262693     
  0.99786812574768502     
  0.99791788083771882     
  0.99799748387700682     
  0.99817397738084468     
  0.99841082665672543     
  0.99872334147674235     
  0.99909690593552825     
  0.99953030353349515     
   1.0000137009067989     
   1.0005405462695671     
   1.0011020043448300     
   1.0016902734442992     
   1.0022973591397357     
   1.0029160633482450     
   1.0035397735009761     
   1.0041627342074866     
   1.0047799889471727     
   1.0053874262943223     
   1.0059817541940104     
   1.0065604922215026     
   1.0071219173139991     
   1.0076649675761802     
   1.0081891003173389     
   1.0086941358363934     
   1.0091801170838928     
   1.0096472057499888     
   1.0100956164259720     
   1.0105255809090909     
   1.0109373333668374     
   1.0113311094703490     
   1.0117071527457309     
   1.0120657216529043     
   1.0124070948514168     
   1.0127315801677277     
   1.0130395384059143     
   1.0133314304264456     
   1.0136078844124063     
   1.0138697670922798     
   1.0141182356939931     
   1.0143547497659293     
   1.0145810302252241     
   1.0147989618914579     
   1.0150104429307063     
   1.0152171920163979     
   1.0154205340106914     
   1.0156211964099664     
   1.0158191558383813     
   1.0160135698924377     
   1.0162028123832809     
   1.0163846043670899     
   1.0165562091145812     
   1.0167146458644662     
   1.0168568791288459     
   1.0169799550892156     
   1.0170810773189105     
   1.0171576330626904     
   1.0172071932356732     
   1.0172275120951400     
   1.0172165468747969     
   1.0171725061076946     
   1.0170939216770283     
   1.0169797282020088     
   1.0168293280804843     
   1.0166426232725521     
   1.0164200045098111     
   1.0161623009506677     
   1.0158707031812015     
   1.0155466761498093     
   1.0151918756781275     
   1.0148080754558055     
   1.0143971052034793     
   1.0139607981891710     
   1.0135009479084607     
   1.0130192771419764     
   1.0125174243998605     
   1.0119969507580744     
   1.0114593646800198     
   1.0109061563627511     
   1.0103388299508846     
   1.0097589238151046     
   1.0091680155850760     
   1.0085677168820391     
   1.0079596687993393     
   1.0073455500938366     
   1.0067271050447923     
   1.0061061888696969     
   1.0054848190327048     
   1.0048652144915511     
   1.0042498043611261     
   1.0036411929763269     
   1.0030420782089080     
   1.0024551311362178     
   1.0018828545668335     
   1.0013274430705954     
   1.0007906669927087     
   1.0002737979045280     
  0.99977758468260558     
  0.99930228011959776     
  0.99884770978816084     
  0.99841336933393832     
  0.99799853412522432     
  0.99760236603820973     
  0.99722400529646416     
  0.99686263963228317     
  0.99651754756830968     
  0.99618811656169015     
  0.99587383966928911     
  0.99557429613310988     
  0.99528912191401286     
  0.99501797591125152     
  0.99476050666002780     
  0.99451632298836878     
  0.99428497072283473     
  0.99406591628933383     
  0.99385853711681760     
  0.99366211816238870     
  0.99347585360754898     
  0.99329885272052310     
  0.99313014894793017     
  0.99296871138818865     
  0.99281345789507291     
  0.99266326912741309     
  0.99251700295915180     
  0.99237350875437891     
  0.99223164116127072     
  0.99209027318591259     
  0.99194830845317827     
  0.99180469259486426     
  0.99165842378292002     
  0.99150856235012530     
  0.99135423948457890     
  0.99119466485214125     
  0.99102913309982543     
  0.99085702904804895     
  0.99067783158659761     
  0.99049111610785678     
  0.99029655563483421     
  0.99009392051316480     
  0.98988307698886246     
  0.98966398451865956     
  0.98943669229523623     
  0.98920133472733518     
  0.98895812653612514     
  0.98870735700911738     
  0.98844938430563756     
  0.98818462904075755     
  0.98791356836482547     
  0.98763672929755375     
  0.98735468300646623     
  0.98706803812051402     
  0.98677743547633889     
  0.98648354144591022     
  0.98618704329711271     
  0.98588864240722651     
  0.98558905033544186     
  0.98528898169386803     
  0.98498915108509832     
  0.98469026536295312     
  0.98439302172889875     
  0.98409809907587842     
  0.98380615771434754     
  0.98351782939976062     
  0.98323371936985993     
  0.98295439450091870     
  0.98268038861279572     
  0.98241218796016172     
  0.98215024110994387     
  0.98189494060273652     
  0.98164663915241768     
  0.98140562578351975     
  0.98117215071420150     
  0.98094639356122071     
  0.98072850010345780     
  0.98051853916232190     
  0.98031655553819319     
  0.98012251081611779     
  0.97993635820297054     
  0.97975796070960652     
  0.97958719552132345     
  0.97942384069832689     
  0.97926771918129307     
  0.97911854222842343     
  0.97897610623296849     
  0.97884007752959434     
  0.97871025888913332     
  0.97858629619474469     
  0.97846803565242546     
  0.97835512849699158     
  0.97824750412519623     
  0.97814484516546119     
  0.97804720479929397     
  0.97795432271077831     
  0.97786641472540203     
  0.97778330319763607     
  0.97770540000256234     
  0.97763263786378640     
  0.97756564709529581     
  0.97750450577436210     
  0.97745006532538703     
  0.97740260151773506     
  0.97736315577443378     
  0.97733228887477996     
  0.97731114443945688     
  0.97730071993605461     
  0.97730207968079341     
  0.97731692146226490     
  0.97734589597790822     
  0.97739185241983084     
  0.97745444745801979     
  0.97753843799032858     
  0.97764151472689631     
  0.97777158520443497     
  0.97792278654034370     
  0.97810818353446427     
  0.97831581402828394     
  0.97856709079372939     
  0.97883993050585083     
  0.97916910127987855     
  0.97951612497326068     
  0.97993689047319843     
  0.98036685173052096     
  0.98089492992900995     
  0.98141575339541909     
  0.98206936593891581     
  0.98268727433884273     
  0.98348785710903908     
  0.98420614424757857     
  0.98517937807551892     
  0.98599671748674300     
  0.98717401284011530     
  0.98808218472809395     
  0.98950277835024059     
  0.99048372350893799     
  0.99219758211991793     
  0.99321973760466120     
  0.99529153956909600     
  0.99630555253418285     
  0.99882022396735026     
  0.99975435879869878     
   1.0028255468338314     
   1.0035814861635941     
   1.0073673766022839     
   1.0078184560173835     
   1.0125606381406029     
   1.0125606381406029     
   1.0000000000000000     
  0.99822119148669475     
  0.99926549914084994     
  0.99850500583423440     
  0.99868348479423763     
  0.99830371857724998     
  0.99823728129168143     
  0.99803970774859729     
  0.99798405243428157     
  0.99794806132743485     
  0.99801692081382010     
  0.99815938220289313     
  0.99840020831545873     
  0.99872933819538201     
  0.99914987514007303     
  0.99965377788769194     
   1.0002351468014605     
   1.0008842571050067     
   1.0015914364103229     
   1.0023459455888528     
   1.0031373023901358     
   1.0039552711005029     
   1.0047903598903434     
   1.0056339251999571     
   1.0064783576246203     
   1.0073171565888530     
   1.0081449950661296     
   1.0089577061256019     
   1.0097521981209969     
   1.0105262966407462     
   1.0112785518226153     
   1.0120080499385071     
   1.0127142584370163     
   1.0133969121894359     
   1.0140559366580699     
   1.0146914003417322     
   1.0153034898453293     
   1.0158924996977226     
   1.0164588286718914     
   1.0170029788104806     
   1.0175255630252744     
   1.0180273339455010     
   1.0185092433590031     
   1.0189725272382912     
   1.0194187945431401     
   1.0198500884627857     
   1.0202688910742057     
   1.0206780528723018     
   1.0210806410906828     
   1.0214797117888561     
   1.0218780220248116     
   1.0222777124426834     
   1.0226800056473540     
   1.0230849746431481     
   1.0234914302193583     
   1.0238969535384359     
   1.0242980662298813     
   1.0246904973653337     
   1.0250694872462196     
   1.0254300682305575     
   1.0257672806492251     
   1.0260763087819140     
   1.0263525479020119     
   1.0265916309952849     
   1.0267894494379854     
   1.0269421959640468     
   1.0270464436761670     
   1.0270992565531476     
   1.0270983107786205     
   1.0270419977322671     
   1.0269294816767138     
   1.0267606970319838     
   1.0265362866457175     
   1.0262574967724782     
   1.0259260511534614     
   1.0255440243096605     
   1.0251137260655476     
   1.0246376009064340     
   1.0241181415997407     
   1.0235578176874798     
   1.0229590233679069     
   1.0223240515776246     
   1.0216550986105946     
   1.0209542964883433     
   1.0202237619278931     
   1.0194656458433244     
   1.0186821691105710     
   1.0178756386699213     
   1.0170484493022895     
   1.0162030852399841     
   1.0153421377086345     
   1.0144683481192540     
   1.0135846741803576     
   1.0126943625591380     
   1.0118010023120447     
   1.0109085319430791     
   1.0100211805027688     
   1.0091433374313798     
   1.0082793626229807     
   1.0074333626639380     
   1.0066089675836443     
   1.0058091429258145     
   1.0050360649332351     
   1.0042910744070082     
   1.0035747106142878     
   1.0028868137421001     
   1.0022266752793476     
   1.0015932115321533     
   1.0009851361169542     
   1.0004011116285965     
  0.99983986716297313     
  0.99930027540387245     
  0.99878138931795712     
  0.99828244337187577     
  0.99780282727483183     
  0.99734204158859618     
  0.99689964438954648     
  0.99647519690210640     
  0.99606821409323676     
  0.99567812406944101     
  0.99530423812363455     
  0.99494573170346878     
  0.99460163551588843     
  0.99427083542610506     
  0.99395207961361121     
  0.99364399147832294     
  0.99334508689267664     
  0.99305379453168741     
  0.99276847812476254     
  0.99248745962988505     
  0.99220904248232400     
  0.99193153430122094     
  0.99165326861587266     
  0.99137262540021598     
  0.99108805027693614     
  0.99079807237325401     
  0.99050132072057517     
  0.99019653914767780     
  0.98988259943922574     
  0.98955851265628891     
  0.98922343832313808     
  0.98887669146060531     
  0.98851774721551322     
  0.98814624327611444     
  0.98776197989601833     
  0.98736491796305415     
  0.98695517493174989     
  0.98653301929255455     
  0.98609886327053131     
  0.98565325467809017     
  0.98519686735491174     
  0.98473049143413782     
  0.98425502244444063     
  0.98377145091652363     
  0.98328085086664119     
  0.98278436945239855     
  0.98228321526271667     
  0.98177864848138352     
  0.98127196910589709     
  0.98076450787824576     
  0.98025761430892877     
  0.97975264855281063     
  0.97925096897275199     
  0.97875392521848570     
  0.97826284502218785     
  0.97777902894848412     
  0.97730373608062759     
  0.97683818117144172     
  0.97638351876567575     
  0.97594084378073565     
  0.97551117339839410     
  0.97509545247977225     
  0.97469453222002445     
  0.97430918227127994     
  0.97394006462239180     
  0.97358775490329641     
  0.97325270919225704     
  0.97293529780572596     
  0.97263576171174571     
  0.97235426326033547     
  0.97209082747522557     
  0.97184541570852956     
  0.97161784514034422     
  0.97140789337080968     
  0.97121518686924735     
  0.97103934724500829     
  0.97087983603409667     
  0.97073615698447779     
  0.97060764026510660     
  0.97049371967199893     
  0.97039363395623623     
  0.97030680349630871     
  0.97023242001720045     
  0.97016995393834482     
  0.97011859659598709     
  0.97007793669842524     
  0.97004721200810251     
  0.97002619990982242     
  0.97001423002351761     
  0.97001133741668599     
  0.97001698714942786     
  0.97003153466648828     
  0.97005462391310138     
  0.97008697989198311     
  0.97012847427536775     
  0.97018022618317801     
  0.97024240094941427     
  0.97031649387170960     
  0.97040306835212087     
  0.97050390625181115     
  0.97062014852567957     
  0.97075365491182530     
  0.97090645892471905     
  0.97108009418472330     
  0.97127803458838624     
  0.97150076704535293     
  0.97175414008007499     
  0.97203636591327891     
  0.97235722753229392     
  0.97271063019908399     
  0.97311284582712709     
  0.97355017826981094     
  0.97404950299305204     
  0.97458426610064541     
  0.97519848039552981     
  0.97584445895260352     
  0.97659359494299114     
  0.97736419537161012     
  0.97827090561273000     
  0.97917821658627668     
  0.98026836119941929     
  0.98132183410735740     
  0.98262538934518440     
  0.98383001062203979     